file 17677040 1474902038                                        
version 2
run wanSansMPLSsansTE-0-20160926-11:00:07-18852
attr configname wanSansMPLSsansTE
attr datetime 20160926-11:00:07
attr experiment wanSansMPLSsansTE
attr inifile wanMPLS.ini
attr iterationvars ""
attr iterationvars2 $repetition=0
attr measurement ""
attr network wanSansMPLSSansTE
attr processid 18852
attr repetition 0
attr replication #0
attr resultdir results
attr runnumber 0
attr seedset 0

vector 47  wanSansMPLSSansTE.montrealServer.ppp[0].queue  queueLength:vector  ETV
attr interpolationmode  sample-hold
attr title  "queue length, vector"
vector 48  wanSansMPLSSansTE.montrealServer.ppp[0].ppp  txState:vector  ETV
attr interpolationmode  sample-hold
attr title  "tx state, vector"
vector 75  wanSansMPLSSansTE.vancouverRouter.ppp[0].queue  queueLength:vector  ETV
attr interpolationmode  sample-hold
attr title  "queue length, vector"
vector 76  wanSansMPLSSansTE.vancouverRouter.ppp[0].ppp  txState:vector  ETV
attr interpolationmode  sample-hold
attr title  "tx state, vector"
vector 145  wanSansMPLSSansTE.calgaryLSR.ppp[0].queue  queueLength:vector  ETV
attr interpolationmode  sample-hold
attr title  "queue length, vector"
vector 146  wanSansMPLSSansTE.calgaryLSR.ppp[0].ppp  txState:vector  ETV
attr interpolationmode  sample-hold
attr title  "tx state, vector"
vector 156  wanSansMPLSSansTE.calgaryLSR.ppp[1].queue  queueLength:vector  ETV
attr interpolationmode  sample-hold
attr title  "queue length, vector"
vector 157  wanSansMPLSSansTE.calgaryLSR.ppp[1].ppp  txState:vector  ETV
attr interpolationmode  sample-hold
attr title  "tx state, vector"
vector 167  wanSansMPLSSansTE.calgaryLSR.ppp[2].queue  queueLength:vector  ETV
attr interpolationmode  sample-hold
attr title  "queue length, vector"
vector 168  wanSansMPLSSansTE.calgaryLSR.ppp[2].ppp  txState:vector  ETV
attr interpolationmode  sample-hold
attr title  "tx state, vector"
vector 183  wanSansMPLSSansTE.vancouverLSR.ppp[0].queue  queueLength:vector  ETV
attr interpolationmode  sample-hold
attr title  "queue length, vector"
vector 184  wanSansMPLSSansTE.vancouverLSR.ppp[0].ppp  txState:vector  ETV
attr interpolationmode  sample-hold
attr title  "tx state, vector"
vector 194  wanSansMPLSSansTE.vancouverLSR.ppp[1].queue  queueLength:vector  ETV
attr interpolationmode  sample-hold
attr title  "queue length, vector"
vector 195  wanSansMPLSSansTE.vancouverLSR.ppp[1].ppp  txState:vector  ETV
attr interpolationmode  sample-hold
attr title  "tx state, vector"
vector 205  wanSansMPLSSansTE.vancouverLSR.ppp[2].queue  queueLength:vector  ETV
attr interpolationmode  sample-hold
attr title  "queue length, vector"
vector 206  wanSansMPLSSansTE.vancouverLSR.ppp[2].ppp  txState:vector  ETV
attr interpolationmode  sample-hold
attr title  "tx state, vector"
vector 221  wanSansMPLSSansTE.edmontonLSR.ppp[0].queue  queueLength:vector  ETV
attr interpolationmode  sample-hold
attr title  "queue length, vector"
vector 222  wanSansMPLSSansTE.edmontonLSR.ppp[0].ppp  txState:vector  ETV
attr interpolationmode  sample-hold
attr title  "tx state, vector"
vector 232  wanSansMPLSSansTE.edmontonLSR.ppp[1].queue  queueLength:vector  ETV
attr interpolationmode  sample-hold
attr title  "queue length, vector"
vector 233  wanSansMPLSSansTE.edmontonLSR.ppp[1].ppp  txState:vector  ETV
attr interpolationmode  sample-hold
attr title  "tx state, vector"
vector 243  wanSansMPLSSansTE.edmontonLSR.ppp[2].queue  queueLength:vector  ETV
attr interpolationmode  sample-hold
attr title  "queue length, vector"
vector 244  wanSansMPLSSansTE.edmontonLSR.ppp[2].ppp  txState:vector  ETV
attr interpolationmode  sample-hold
attr title  "tx state, vector"
vector 259  wanSansMPLSSansTE.reginaLSR.ppp[0].queue  queueLength:vector  ETV
attr interpolationmode  sample-hold
attr title  "queue length, vector"
vector 260  wanSansMPLSSansTE.reginaLSR.ppp[0].ppp  txState:vector  ETV
attr interpolationmode  sample-hold
attr title  "tx state, vector"
vector 270  wanSansMPLSSansTE.reginaLSR.ppp[1].queue  queueLength:vector  ETV
attr interpolationmode  sample-hold
attr title  "queue length, vector"
vector 271  wanSansMPLSSansTE.reginaLSR.ppp[1].ppp  txState:vector  ETV
attr interpolationmode  sample-hold
attr title  "tx state, vector"
vector 281  wanSansMPLSSansTE.reginaLSR.ppp[2].queue  queueLength:vector  ETV
attr interpolationmode  sample-hold
attr title  "queue length, vector"
vector 282  wanSansMPLSSansTE.reginaLSR.ppp[2].ppp  txState:vector  ETV
attr interpolationmode  sample-hold
attr title  "tx state, vector"
vector 297  wanSansMPLSSansTE.torontoLSR.ppp[0].queue  queueLength:vector  ETV
attr interpolationmode  sample-hold
attr title  "queue length, vector"
vector 298  wanSansMPLSSansTE.torontoLSR.ppp[0].ppp  txState:vector  ETV
attr interpolationmode  sample-hold
attr title  "tx state, vector"
vector 308  wanSansMPLSSansTE.torontoLSR.ppp[1].queue  queueLength:vector  ETV
attr interpolationmode  sample-hold
attr title  "queue length, vector"
vector 309  wanSansMPLSSansTE.torontoLSR.ppp[1].ppp  txState:vector  ETV
attr interpolationmode  sample-hold
attr title  "tx state, vector"
vector 324  wanSansMPLSSansTE.winnipegLSR.ppp[0].queue  queueLength:vector  ETV
attr interpolationmode  sample-hold
attr title  "queue length, vector"
vector 325  wanSansMPLSSansTE.winnipegLSR.ppp[0].ppp  txState:vector  ETV
attr interpolationmode  sample-hold
attr title  "tx state, vector"
vector 335  wanSansMPLSSansTE.winnipegLSR.ppp[1].queue  queueLength:vector  ETV
attr interpolationmode  sample-hold
attr title  "queue length, vector"
vector 336  wanSansMPLSSansTE.winnipegLSR.ppp[1].ppp  txState:vector  ETV
attr interpolationmode  sample-hold
attr title  "tx state, vector"
vector 351  wanSansMPLSSansTE.montrealLSR.ppp[0].queue  queueLength:vector  ETV
attr interpolationmode  sample-hold
attr title  "queue length, vector"
vector 352  wanSansMPLSSansTE.montrealLSR.ppp[0].ppp  txState:vector  ETV
attr interpolationmode  sample-hold
attr title  "tx state, vector"
vector 362  wanSansMPLSSansTE.montrealLSR.ppp[1].queue  queueLength:vector  ETV
attr interpolationmode  sample-hold
attr title  "queue length, vector"
vector 363  wanSansMPLSSansTE.montrealLSR.ppp[1].ppp  txState:vector  ETV
attr interpolationmode  sample-hold
attr title  "tx state, vector"
vector 373  wanSansMPLSSansTE.montrealLSR.ppp[2].queue  queueLength:vector  ETV
attr interpolationmode  sample-hold
attr title  "queue length, vector"
vector 374  wanSansMPLSSansTE.montrealLSR.ppp[2].ppp  txState:vector  ETV
attr interpolationmode  sample-hold
attr title  "tx state, vector"
vector 384  wanSansMPLSSansTE.montrealLSR.ppp[3].queue  queueLength:vector  ETV
attr interpolationmode  sample-hold
attr title  "queue length, vector"
vector 385  wanSansMPLSSansTE.montrealLSR.ppp[3].ppp  txState:vector  ETV
attr interpolationmode  sample-hold
attr title  "tx state, vector"
vector 294  wanSansMPLSSansTE.torontoLSR.ppp[0].queue  rcvdPk:vector(packetBytes)  ETV
attr interpolationmode  none
attr title  "received packets, vector(packetBytes)"
vector 296  wanSansMPLSSansTE.torontoLSR.ppp[0].queue  queueingTime:vector  ETV
attr interpolationmode  none
attr title  "queueing time, vector"
vector 305  wanSansMPLSSansTE.torontoLSR.ppp[1].queue  rcvdPk:vector(packetBytes)  ETV
attr interpolationmode  none
attr title  "received packets, vector(packetBytes)"
vector 307  wanSansMPLSSansTE.torontoLSR.ppp[1].queue  queueingTime:vector  ETV
attr interpolationmode  none
attr title  "queueing time, vector"
vector 303  wanSansMPLSSansTE.torontoLSR.ppp[0].ppp  rcvdPkFromHL:vector(packetBytes)  ETV
attr interpolationmode  none
attr source  packetReceivedFromUpper
attr title  "packets received from higher layer, vector(packetBytes)"
vector 299  wanSansMPLSSansTE.torontoLSR.ppp[0].ppp  txPk:vector(packetBytes)  ETV
attr interpolationmode  none
attr source  packetSentToLower
attr title  "packets transmitted, vector(packetBytes)"
vector 14  wanSansMPLSSansTE.torontoLSR.pppg$o[0].channel  throughput:vector  ETV
attr source  sumPerDuration(packetBits(messageSent))
attr unit  bps
vector 314  wanSansMPLSSansTE.torontoLSR.ppp[1].ppp  rcvdPkFromHL:vector(packetBytes)  ETV
attr interpolationmode  none
attr source  packetReceivedFromUpper
attr title  "packets received from higher layer, vector(packetBytes)"
vector 310  wanSansMPLSSansTE.torontoLSR.ppp[1].ppp  txPk:vector(packetBytes)  ETV
attr interpolationmode  none
attr source  packetSentToLower
attr title  "packets transmitted, vector(packetBytes)"
vector 17  wanSansMPLSSansTE.torontoLSR.pppg$o[1].channel  throughput:vector  ETV
attr source  sumPerDuration(packetBits(messageSent))
attr unit  bps
vector 170  wanSansMPLSSansTE.calgaryLSR.ppp[2].ppp  rxPkOk:vector(packetBytes)  ETV
attr interpolationmode  none
attr source  rxPkOk
attr title  "packets received OK, vector(packetBytes)"
vector 174  wanSansMPLSSansTE.calgaryLSR.ppp[2].ppp  passedUpPk:vector(packetBytes)  ETV
attr interpolationmode  none
attr source  packetSentToUpper
attr title  "packets passed to higher layer, vector(packetBytes)"
vector 164  wanSansMPLSSansTE.calgaryLSR.ppp[2].queue  rcvdPk:vector(packetBytes)  ETV
attr interpolationmode  none
attr title  "received packets, vector(packetBytes)"
vector 166  wanSansMPLSSansTE.calgaryLSR.ppp[2].queue  queueingTime:vector  ETV
attr interpolationmode  none
attr title  "queueing time, vector"
vector 142  wanSansMPLSSansTE.calgaryLSR.ppp[0].queue  rcvdPk:vector(packetBytes)  ETV
attr interpolationmode  none
attr title  "received packets, vector(packetBytes)"
vector 144  wanSansMPLSSansTE.calgaryLSR.ppp[0].queue  queueingTime:vector  ETV
attr interpolationmode  none
attr title  "queueing time, vector"
vector 153  wanSansMPLSSansTE.calgaryLSR.ppp[1].queue  rcvdPk:vector(packetBytes)  ETV
attr interpolationmode  none
attr title  "received packets, vector(packetBytes)"
vector 155  wanSansMPLSSansTE.calgaryLSR.ppp[1].queue  queueingTime:vector  ETV
attr interpolationmode  none
attr title  "queueing time, vector"
vector 173  wanSansMPLSSansTE.calgaryLSR.ppp[2].ppp  rcvdPkFromHL:vector(packetBytes)  ETV
attr interpolationmode  none
attr source  packetReceivedFromUpper
attr title  "packets received from higher layer, vector(packetBytes)"
vector 169  wanSansMPLSSansTE.calgaryLSR.ppp[2].ppp  txPk:vector(packetBytes)  ETV
attr interpolationmode  none
attr source  packetSentToLower
attr title  "packets transmitted, vector(packetBytes)"
vector 16  wanSansMPLSSansTE.calgaryLSR.pppg$o[2].channel  throughput:vector  ETV
attr source  sumPerDuration(packetBits(messageSent))
attr unit  bps
vector 151  wanSansMPLSSansTE.calgaryLSR.ppp[0].ppp  rcvdPkFromHL:vector(packetBytes)  ETV
attr interpolationmode  none
attr source  packetReceivedFromUpper
attr title  "packets received from higher layer, vector(packetBytes)"
vector 147  wanSansMPLSSansTE.calgaryLSR.ppp[0].ppp  txPk:vector(packetBytes)  ETV
attr interpolationmode  none
attr source  packetSentToLower
attr title  "packets transmitted, vector(packetBytes)"
vector 1  wanSansMPLSSansTE.calgaryLSR.pppg$o[0].channel  throughput:vector  ETV
attr source  sumPerDuration(packetBits(messageSent))
attr unit  bps
vector 162  wanSansMPLSSansTE.calgaryLSR.ppp[1].ppp  rcvdPkFromHL:vector(packetBytes)  ETV
attr interpolationmode  none
attr source  packetReceivedFromUpper
attr title  "packets received from higher layer, vector(packetBytes)"
vector 158  wanSansMPLSSansTE.calgaryLSR.ppp[1].ppp  txPk:vector(packetBytes)  ETV
attr interpolationmode  none
attr source  packetSentToLower
attr title  "packets transmitted, vector(packetBytes)"
vector 8  wanSansMPLSSansTE.calgaryLSR.pppg$o[1].channel  throughput:vector  ETV
attr source  sumPerDuration(packetBits(messageSent))
attr unit  bps
vector 311  wanSansMPLSSansTE.torontoLSR.ppp[1].ppp  rxPkOk:vector(packetBytes)  ETV
attr interpolationmode  none
attr source  rxPkOk
attr title  "packets received OK, vector(packetBytes)"
vector 315  wanSansMPLSSansTE.torontoLSR.ppp[1].ppp  passedUpPk:vector(packetBytes)  ETV
attr interpolationmode  none
attr source  packetSentToUpper
attr title  "packets passed to higher layer, vector(packetBytes)"
vector 321  wanSansMPLSSansTE.winnipegLSR.ppp[0].queue  rcvdPk:vector(packetBytes)  ETV
attr interpolationmode  none
attr title  "received packets, vector(packetBytes)"
vector 323  wanSansMPLSSansTE.winnipegLSR.ppp[0].queue  queueingTime:vector  ETV
attr interpolationmode  none
attr title  "queueing time, vector"
vector 332  wanSansMPLSSansTE.winnipegLSR.ppp[1].queue  rcvdPk:vector(packetBytes)  ETV
attr interpolationmode  none
attr title  "received packets, vector(packetBytes)"
vector 334  wanSansMPLSSansTE.winnipegLSR.ppp[1].queue  queueingTime:vector  ETV
attr interpolationmode  none
attr title  "queueing time, vector"
vector 330  wanSansMPLSSansTE.winnipegLSR.ppp[0].ppp  rcvdPkFromHL:vector(packetBytes)  ETV
attr interpolationmode  none
attr source  packetReceivedFromUpper
attr title  "packets received from higher layer, vector(packetBytes)"
vector 326  wanSansMPLSSansTE.winnipegLSR.ppp[0].ppp  txPk:vector(packetBytes)  ETV
attr interpolationmode  none
attr source  packetSentToLower
attr title  "packets transmitted, vector(packetBytes)"
vector 4  wanSansMPLSSansTE.winnipegLSR.pppg$o[0].channel  throughput:vector  ETV
attr source  sumPerDuration(packetBits(messageSent))
attr unit  bps
vector 341  wanSansMPLSSansTE.winnipegLSR.ppp[1].ppp  rcvdPkFromHL:vector(packetBytes)  ETV
attr interpolationmode  none
attr source  packetReceivedFromUpper
attr title  "packets received from higher layer, vector(packetBytes)"
vector 337  wanSansMPLSSansTE.winnipegLSR.ppp[1].ppp  txPk:vector(packetBytes)  ETV
attr interpolationmode  none
attr source  packetSentToLower
attr title  "packets transmitted, vector(packetBytes)"
vector 13  wanSansMPLSSansTE.winnipegLSR.pppg$o[1].channel  throughput:vector  ETV
attr source  sumPerDuration(packetBits(messageSent))
attr unit  bps
vector 256  wanSansMPLSSansTE.reginaLSR.ppp[0].queue  rcvdPk:vector(packetBytes)  ETV
attr interpolationmode  none
attr title  "received packets, vector(packetBytes)"
vector 258  wanSansMPLSSansTE.reginaLSR.ppp[0].queue  queueingTime:vector  ETV
attr interpolationmode  none
attr title  "queueing time, vector"
vector 267  wanSansMPLSSansTE.reginaLSR.ppp[1].queue  rcvdPk:vector(packetBytes)  ETV
attr interpolationmode  none
attr title  "received packets, vector(packetBytes)"
vector 269  wanSansMPLSSansTE.reginaLSR.ppp[1].queue  queueingTime:vector  ETV
attr interpolationmode  none
attr title  "queueing time, vector"
vector 278  wanSansMPLSSansTE.reginaLSR.ppp[2].queue  rcvdPk:vector(packetBytes)  ETV
attr interpolationmode  none
attr title  "received packets, vector(packetBytes)"
vector 280  wanSansMPLSSansTE.reginaLSR.ppp[2].queue  queueingTime:vector  ETV
attr interpolationmode  none
attr title  "queueing time, vector"
vector 265  wanSansMPLSSansTE.reginaLSR.ppp[0].ppp  rcvdPkFromHL:vector(packetBytes)  ETV
attr interpolationmode  none
attr source  packetReceivedFromUpper
attr title  "packets received from higher layer, vector(packetBytes)"
vector 261  wanSansMPLSSansTE.reginaLSR.ppp[0].ppp  txPk:vector(packetBytes)  ETV
attr interpolationmode  none
attr source  packetSentToLower
attr title  "packets transmitted, vector(packetBytes)"
vector 2  wanSansMPLSSansTE.reginaLSR.pppg$o[0].channel  throughput:vector  ETV
attr source  sumPerDuration(packetBits(messageSent))
attr unit  bps
vector 276  wanSansMPLSSansTE.reginaLSR.ppp[1].ppp  rcvdPkFromHL:vector(packetBytes)  ETV
attr interpolationmode  none
attr source  packetReceivedFromUpper
attr title  "packets received from higher layer, vector(packetBytes)"
vector 272  wanSansMPLSSansTE.reginaLSR.ppp[1].ppp  txPk:vector(packetBytes)  ETV
attr interpolationmode  none
attr source  packetSentToLower
attr title  "packets transmitted, vector(packetBytes)"
vector 9  wanSansMPLSSansTE.reginaLSR.pppg$o[1].channel  throughput:vector  ETV
attr source  sumPerDuration(packetBits(messageSent))
attr unit  bps
vector 287  wanSansMPLSSansTE.reginaLSR.ppp[2].ppp  rcvdPkFromHL:vector(packetBytes)  ETV
attr interpolationmode  none
attr source  packetReceivedFromUpper
attr title  "packets received from higher layer, vector(packetBytes)"
vector 283  wanSansMPLSSansTE.reginaLSR.ppp[2].ppp  txPk:vector(packetBytes)  ETV
attr interpolationmode  none
attr source  packetSentToLower
attr title  "packets transmitted, vector(packetBytes)"
vector 11  wanSansMPLSSansTE.reginaLSR.pppg$o[2].channel  throughput:vector  ETV
attr source  sumPerDuration(packetBits(messageSent))
attr unit  bps
vector 180  wanSansMPLSSansTE.vancouverLSR.ppp[0].queue  rcvdPk:vector(packetBytes)  ETV
attr interpolationmode  none
attr title  "received packets, vector(packetBytes)"
vector 182  wanSansMPLSSansTE.vancouverLSR.ppp[0].queue  queueingTime:vector  ETV
attr interpolationmode  none
attr title  "queueing time, vector"
vector 191  wanSansMPLSSansTE.vancouverLSR.ppp[1].queue  rcvdPk:vector(packetBytes)  ETV
attr interpolationmode  none
attr title  "received packets, vector(packetBytes)"
vector 193  wanSansMPLSSansTE.vancouverLSR.ppp[1].queue  queueingTime:vector  ETV
attr interpolationmode  none
attr title  "queueing time, vector"
vector 189  wanSansMPLSSansTE.vancouverLSR.ppp[0].ppp  rcvdPkFromHL:vector(packetBytes)  ETV
attr interpolationmode  none
attr source  packetReceivedFromUpper
attr title  "packets received from higher layer, vector(packetBytes)"
vector 185  wanSansMPLSSansTE.vancouverLSR.ppp[0].ppp  txPk:vector(packetBytes)  ETV
attr interpolationmode  none
attr source  packetSentToLower
attr title  "packets transmitted, vector(packetBytes)"
vector 0  wanSansMPLSSansTE.vancouverLSR.pppg$o[0].channel  throughput:vector  ETV
attr source  sumPerDuration(packetBits(messageSent))
attr unit  bps
vector 200  wanSansMPLSSansTE.vancouverLSR.ppp[1].ppp  rcvdPkFromHL:vector(packetBytes)  ETV
attr interpolationmode  none
attr source  packetReceivedFromUpper
attr title  "packets received from higher layer, vector(packetBytes)"
vector 196  wanSansMPLSSansTE.vancouverLSR.ppp[1].ppp  txPk:vector(packetBytes)  ETV
attr interpolationmode  none
attr source  packetSentToLower
attr title  "packets transmitted, vector(packetBytes)"
vector 6  wanSansMPLSSansTE.vancouverLSR.pppg$o[1].channel  throughput:vector  ETV
attr source  sumPerDuration(packetBits(messageSent))
attr unit  bps
vector 90  wanSansMPLSSansTE.vancouverLAN.staSwitch[0].udpApp[0]  sentPk:vector(packetBytes)  ETV
attr interpolationmode  none
attr source  sentPk
attr title  "packets sent, vector(packetBytes)"
vector 97  wanSansMPLSSansTE.vancouverLAN.staSwitch[0].udpApp[0].udpOut.channel  throughput:vector  ETV
attr source  sumPerDuration(packetBits(messageSent))
attr unit  bps
vector 92  wanSansMPLSSansTE.vancouverLAN.staSwitch[0].udp  sentPk:vector(packetBytes)  ETV
attr interpolationmode  none
attr source  sentPk
attr title  "packets sent, vector(packetBytes)"
vector 99  wanSansMPLSSansTE.vancouverLAN.staSwitch[0].udp.ipOut.channel  throughput:vector  ETV
attr source  sumPerDuration(packetBits(messageSent))
attr unit  bps
vector 101  wanSansMPLSSansTE.vancouverLAN.staSwitch[0].networkLayer.arp  sentReq:vector  ETV
attr title  "ARP request sent, vector"
vector 88  wanSansMPLSSansTE.vancouverLAN.staSwitch[0].networkLayer.ifOut[1].channel  throughput:vector  ETV
attr source  sumPerDuration(packetBits(messageSent))
attr unit  bps
vector 115  wanSansMPLSSansTE.vancouverLAN.staSwitch[0].eth[0].encap  encapPk:vector(packetBytes)  ETV
attr interpolationmode  none
attr source  encapPk
attr title  "packets encapsulated, vector(packetBytes)"
vector 111  wanSansMPLSSansTE.vancouverLAN.staSwitch[0].eth[0].mac  rxPkFromHL:vector(packetBytes)  ETV
attr interpolationmode  none
attr source  rxPkFromHL
attr title  "packet bytes from higher layer, vector(packetBytes)"
vector 84  wanSansMPLSSansTE.vancouverLAN.staSwitch[0].ethg$o[0].channel  throughput:vector  ETV
attr source  sumPerDuration(packetBits(messageSent))
attr unit  bps
vector 106  wanSansMPLSSansTE.vancouverLAN.staSwitch[0].eth[0].mac  txPk:vector(packetBytes)  ETV
attr interpolationmode  none
attr source  txPk
attr title  "packets transmitted, vector(packetBytes)"
vector 130  wanSansMPLSSansTE.vancouverLAN.switchInLan.eth[1].mac  rxPkOk:vector(packetBytes)  ETV
attr interpolationmode  none
attr source  rxPkOk
attr title  "packets received OK, vector(packetBytes)"
vector 131  wanSansMPLSSansTE.vancouverLAN.switchInLan.eth[1].mac  passedUpPk:vector(packetBytes)  ETV
attr interpolationmode  none
attr source  packetSentToUpper
attr title  "packets passed to higher layer, vector(packetBytes)"
vector 123  wanSansMPLSSansTE.vancouverLAN.switchInLan.eth[0].mac  rxPkFromHL:vector(packetBytes)  ETV
attr interpolationmode  none
attr source  rxPkFromHL
attr title  "packet bytes from higher layer, vector(packetBytes)"
vector 22  wanSansMPLSSansTE.vancouverLAN.switchInOut$o.channel  throughput:vector  ETV
attr source  sumPerDuration(packetBits(messageSent))
attr unit  bps
vector 118  wanSansMPLSSansTE.vancouverLAN.switchInLan.eth[0].mac  txPk:vector(packetBytes)  ETV
attr interpolationmode  none
attr source  txPk
attr title  "packets transmitted, vector(packetBytes)"
vector 61  wanSansMPLSSansTE.vancouverRouter.eth[0].mac  rxPkOk:vector(packetBytes)  ETV
attr interpolationmode  none
attr source  rxPkOk
attr title  "packets received OK, vector(packetBytes)"
vector 62  wanSansMPLSSansTE.vancouverRouter.eth[0].mac  passedUpPk:vector(packetBytes)  ETV
attr interpolationmode  none
attr source  packetSentToUpper
attr title  "packets passed to higher layer, vector(packetBytes)"
vector 70  wanSansMPLSSansTE.vancouverRouter.eth[0].encap  decapPk:vector(packetBytes)  ETV
attr interpolationmode  none
attr source  decapPk
attr title  "packets decapsulated, vector(packetBytes)"
vector 56  wanSansMPLSSansTE.vancouverRouter.networkLayer.arp  sentReply:vector  ETV
attr title  "ARP replies sent, vector"
vector 69  wanSansMPLSSansTE.vancouverRouter.eth[0].encap  encapPk:vector(packetBytes)  ETV
attr interpolationmode  none
attr source  encapPk
attr title  "packets encapsulated, vector(packetBytes)"
vector 65  wanSansMPLSSansTE.vancouverRouter.eth[0].mac  rxPkFromHL:vector(packetBytes)  ETV
attr interpolationmode  none
attr source  rxPkFromHL
attr title  "packet bytes from higher layer, vector(packetBytes)"
vector 23  wanSansMPLSSansTE.vancouverRouter.ethg$o[0].channel  throughput:vector  ETV
attr source  sumPerDuration(packetBits(messageSent))
attr unit  bps
vector 60  wanSansMPLSSansTE.vancouverRouter.eth[0].mac  txPk:vector(packetBytes)  ETV
attr interpolationmode  none
attr source  txPk
attr title  "packets transmitted, vector(packetBytes)"
vector 119  wanSansMPLSSansTE.vancouverLAN.switchInLan.eth[0].mac  rxPkOk:vector(packetBytes)  ETV
attr interpolationmode  none
attr source  rxPkOk
attr title  "packets received OK, vector(packetBytes)"
vector 120  wanSansMPLSSansTE.vancouverLAN.switchInLan.eth[0].mac  passedUpPk:vector(packetBytes)  ETV
attr interpolationmode  none
attr source  packetSentToUpper
attr title  "packets passed to higher layer, vector(packetBytes)"
vector 134  wanSansMPLSSansTE.vancouverLAN.switchInLan.eth[1].mac  rxPkFromHL:vector(packetBytes)  ETV
attr interpolationmode  none
attr source  rxPkFromHL
attr title  "packet bytes from higher layer, vector(packetBytes)"
vector 83  wanSansMPLSSansTE.vancouverLAN.switchInLan.ethg$o[1].channel  throughput:vector  ETV
attr source  sumPerDuration(packetBits(messageSent))
attr unit  bps
vector 129  wanSansMPLSSansTE.vancouverLAN.switchInLan.eth[1].mac  txPk:vector(packetBytes)  ETV
attr interpolationmode  none
attr source  txPk
attr title  "packets transmitted, vector(packetBytes)"
vector 107  wanSansMPLSSansTE.vancouverLAN.staSwitch[0].eth[0].mac  rxPkOk:vector(packetBytes)  ETV
attr interpolationmode  none
attr source  rxPkOk
attr title  "packets received OK, vector(packetBytes)"
vector 108  wanSansMPLSSansTE.vancouverLAN.staSwitch[0].eth[0].mac  passedUpPk:vector(packetBytes)  ETV
attr interpolationmode  none
attr source  packetSentToUpper
attr title  "packets passed to higher layer, vector(packetBytes)"
vector 116  wanSansMPLSSansTE.vancouverLAN.staSwitch[0].eth[0].encap  decapPk:vector(packetBytes)  ETV
attr interpolationmode  none
attr source  decapPk
attr title  "packets decapsulated, vector(packetBytes)"
vector 87  wanSansMPLSSansTE.vancouverLAN.staSwitch[0].eth[0].upperLayerOut.channel  throughput:vector  ETV
attr source  sumPerDuration(packetBits(messageSent))
attr unit  bps
vector 72  wanSansMPLSSansTE.vancouverRouter.ppp[0].queue  rcvdPk:vector(packetBytes)  ETV
attr interpolationmode  none
attr title  "received packets, vector(packetBytes)"
vector 74  wanSansMPLSSansTE.vancouverRouter.ppp[0].queue  queueingTime:vector  ETV
attr interpolationmode  none
attr title  "queueing time, vector"
vector 81  wanSansMPLSSansTE.vancouverRouter.ppp[0].ppp  rcvdPkFromHL:vector(packetBytes)  ETV
attr interpolationmode  none
attr source  packetReceivedFromUpper
attr title  "packets received from higher layer, vector(packetBytes)"
vector 77  wanSansMPLSSansTE.vancouverRouter.ppp[0].ppp  txPk:vector(packetBytes)  ETV
attr interpolationmode  none
attr source  packetSentToLower
attr title  "packets transmitted, vector(packetBytes)"
vector 21  wanSansMPLSSansTE.vancouverRouter.pppg$o[0].channel  throughput:vector  ETV
attr source  sumPerDuration(packetBits(messageSent))
attr unit  bps
vector 208  wanSansMPLSSansTE.vancouverLSR.ppp[2].ppp  rxPkOk:vector(packetBytes)  ETV
attr interpolationmode  none
attr source  rxPkOk
attr title  "packets received OK, vector(packetBytes)"
vector 212  wanSansMPLSSansTE.vancouverLSR.ppp[2].ppp  passedUpPk:vector(packetBytes)  ETV
attr interpolationmode  none
attr source  packetSentToUpper
attr title  "packets passed to higher layer, vector(packetBytes)"
vector 376  wanSansMPLSSansTE.montrealLSR.ppp[2].ppp  rxPkOk:vector(packetBytes)  ETV
attr interpolationmode  none
attr source  rxPkOk
attr title  "packets received OK, vector(packetBytes)"
vector 380  wanSansMPLSSansTE.montrealLSR.ppp[2].ppp  passedUpPk:vector(packetBytes)  ETV
attr interpolationmode  none
attr source  packetSentToUpper
attr title  "packets passed to higher layer, vector(packetBytes)"
vector 370  wanSansMPLSSansTE.montrealLSR.ppp[2].queue  rcvdPk:vector(packetBytes)  ETV
attr interpolationmode  none
attr title  "received packets, vector(packetBytes)"
vector 372  wanSansMPLSSansTE.montrealLSR.ppp[2].queue  queueingTime:vector  ETV
attr interpolationmode  none
attr title  "queueing time, vector"
vector 348  wanSansMPLSSansTE.montrealLSR.ppp[0].queue  rcvdPk:vector(packetBytes)  ETV
attr interpolationmode  none
attr title  "received packets, vector(packetBytes)"
vector 350  wanSansMPLSSansTE.montrealLSR.ppp[0].queue  queueingTime:vector  ETV
attr interpolationmode  none
attr title  "queueing time, vector"
vector 359  wanSansMPLSSansTE.montrealLSR.ppp[1].queue  rcvdPk:vector(packetBytes)  ETV
attr interpolationmode  none
attr title  "received packets, vector(packetBytes)"
vector 361  wanSansMPLSSansTE.montrealLSR.ppp[1].queue  queueingTime:vector  ETV
attr interpolationmode  none
attr title  "queueing time, vector"
vector 379  wanSansMPLSSansTE.montrealLSR.ppp[2].ppp  rcvdPkFromHL:vector(packetBytes)  ETV
attr interpolationmode  none
attr source  packetReceivedFromUpper
attr title  "packets received from higher layer, vector(packetBytes)"
vector 375  wanSansMPLSSansTE.montrealLSR.ppp[2].ppp  txPk:vector(packetBytes)  ETV
attr interpolationmode  none
attr source  packetSentToLower
attr title  "packets transmitted, vector(packetBytes)"
vector 15  wanSansMPLSSansTE.montrealLSR.pppg$o[2].channel  throughput:vector  ETV
attr source  sumPerDuration(packetBits(messageSent))
attr unit  bps
vector 357  wanSansMPLSSansTE.montrealLSR.ppp[0].ppp  rcvdPkFromHL:vector(packetBytes)  ETV
attr interpolationmode  none
attr source  packetReceivedFromUpper
attr title  "packets received from higher layer, vector(packetBytes)"
vector 353  wanSansMPLSSansTE.montrealLSR.ppp[0].ppp  txPk:vector(packetBytes)  ETV
attr interpolationmode  none
attr source  packetSentToLower
attr title  "packets transmitted, vector(packetBytes)"
vector 3  wanSansMPLSSansTE.montrealLSR.pppg$o[0].channel  throughput:vector  ETV
attr source  sumPerDuration(packetBits(messageSent))
attr unit  bps
vector 368  wanSansMPLSSansTE.montrealLSR.ppp[1].ppp  rcvdPkFromHL:vector(packetBytes)  ETV
attr interpolationmode  none
attr source  packetReceivedFromUpper
attr title  "packets received from higher layer, vector(packetBytes)"
vector 364  wanSansMPLSSansTE.montrealLSR.ppp[1].ppp  txPk:vector(packetBytes)  ETV
attr interpolationmode  none
attr source  packetSentToLower
attr title  "packets transmitted, vector(packetBytes)"
vector 5  wanSansMPLSSansTE.montrealLSR.pppg$o[1].channel  throughput:vector  ETV
attr source  sumPerDuration(packetBits(messageSent))
attr unit  bps
vector 273  wanSansMPLSSansTE.reginaLSR.ppp[1].ppp  rxPkOk:vector(packetBytes)  ETV
attr interpolationmode  none
attr source  rxPkOk
attr title  "packets received OK, vector(packetBytes)"
vector 277  wanSansMPLSSansTE.reginaLSR.ppp[1].ppp  passedUpPk:vector(packetBytes)  ETV
attr interpolationmode  none
attr source  packetSentToUpper
attr title  "packets passed to higher layer, vector(packetBytes)"
vector 246  wanSansMPLSSansTE.edmontonLSR.ppp[2].ppp  rxPkOk:vector(packetBytes)  ETV
attr interpolationmode  none
attr source  rxPkOk
attr title  "packets received OK, vector(packetBytes)"
vector 250  wanSansMPLSSansTE.edmontonLSR.ppp[2].ppp  passedUpPk:vector(packetBytes)  ETV
attr interpolationmode  none
attr source  packetSentToUpper
attr title  "packets passed to higher layer, vector(packetBytes)"
vector 240  wanSansMPLSSansTE.edmontonLSR.ppp[2].queue  rcvdPk:vector(packetBytes)  ETV
attr interpolationmode  none
attr title  "received packets, vector(packetBytes)"
vector 242  wanSansMPLSSansTE.edmontonLSR.ppp[2].queue  queueingTime:vector  ETV