file 12510940 1474899643                                        
version 2
run wanSansMPLS-0-20160926-10:14:51-18025
attr configname wanSansMPLS
attr datetime 20160926-10:14:51
attr experiment wanSansMPLS
attr inifile wanMPLS.ini
attr iterationvars ""
attr iterationvars2 $repetition=0
attr measurement ""
attr network wanSansMPLS
attr processid 18025
attr repetition 0
attr replication #0
attr resultdir results
attr runnumber 0
attr seedset 0

vector 47  wanSansMPLS.montrealServer.ppp[0].queue  queueLength:vector  ETV
attr interpolationmode  sample-hold
attr title  "queue length, vector"
vector 48  wanSansMPLS.montrealServer.ppp[0].ppp  txState:vector  ETV
attr interpolationmode  sample-hold
attr title  "tx state, vector"
vector 75  wanSansMPLS.vancouverRouter.ppp[0].queue  queueLength:vector  ETV
attr interpolationmode  sample-hold
attr title  "queue length, vector"
vector 76  wanSansMPLS.vancouverRouter.ppp[0].ppp  txState:vector  ETV
attr interpolationmode  sample-hold
attr title  "tx state, vector"
vector 145  wanSansMPLS.calgaryLSR.ppp[0].queue  queueLength:vector  ETV
attr interpolationmode  sample-hold
attr title  "queue length, vector"
vector 146  wanSansMPLS.calgaryLSR.ppp[0].ppp  txState:vector  ETV
attr interpolationmode  sample-hold
attr title  "tx state, vector"
vector 156  wanSansMPLS.calgaryLSR.ppp[1].queue  queueLength:vector  ETV
attr interpolationmode  sample-hold
attr title  "queue length, vector"
vector 157  wanSansMPLS.calgaryLSR.ppp[1].ppp  txState:vector  ETV
attr interpolationmode  sample-hold
attr title  "tx state, vector"
vector 167  wanSansMPLS.calgaryLSR.ppp[2].queue  queueLength:vector  ETV
attr interpolationmode  sample-hold
attr title  "queue length, vector"
vector 168  wanSansMPLS.calgaryLSR.ppp[2].ppp  txState:vector  ETV
attr interpolationmode  sample-hold
attr title  "tx state, vector"
vector 183  wanSansMPLS.vancouverLSR.ppp[0].queue  queueLength:vector  ETV
attr interpolationmode  sample-hold
attr title  "queue length, vector"
vector 184  wanSansMPLS.vancouverLSR.ppp[0].ppp  txState:vector  ETV
attr interpolationmode  sample-hold
attr title  "tx state, vector"
vector 194  wanSansMPLS.vancouverLSR.ppp[1].queue  queueLength:vector  ETV
attr interpolationmode  sample-hold
attr title  "queue length, vector"
vector 195  wanSansMPLS.vancouverLSR.ppp[1].ppp  txState:vector  ETV
attr interpolationmode  sample-hold
attr title  "tx state, vector"
vector 205  wanSansMPLS.vancouverLSR.ppp[2].queue  queueLength:vector  ETV
attr interpolationmode  sample-hold
attr title  "queue length, vector"
vector 206  wanSansMPLS.vancouverLSR.ppp[2].ppp  txState:vector  ETV
attr interpolationmode  sample-hold
attr title  "tx state, vector"
vector 221  wanSansMPLS.edmontonLSR.ppp[0].queue  queueLength:vector  ETV
attr interpolationmode  sample-hold
attr title  "queue length, vector"
vector 222  wanSansMPLS.edmontonLSR.ppp[0].ppp  txState:vector  ETV
attr interpolationmode  sample-hold
attr title  "tx state, vector"
vector 232  wanSansMPLS.edmontonLSR.ppp[1].queue  queueLength:vector  ETV
attr interpolationmode  sample-hold
attr title  "queue length, vector"
vector 233  wanSansMPLS.edmontonLSR.ppp[1].ppp  txState:vector  ETV
attr interpolationmode  sample-hold
attr title  "tx state, vector"
vector 243  wanSansMPLS.edmontonLSR.ppp[2].queue  queueLength:vector  ETV
attr interpolationmode  sample-hold
attr title  "queue length, vector"
vector 244  wanSansMPLS.edmontonLSR.ppp[2].ppp  txState:vector  ETV
attr interpolationmode  sample-hold
attr title  "tx state, vector"
vector 259  wanSansMPLS.reginaLSR.ppp[0].queue  queueLength:vector  ETV
attr interpolationmode  sample-hold
attr title  "queue length, vector"
vector 260  wanSansMPLS.reginaLSR.ppp[0].ppp  txState:vector  ETV
attr interpolationmode  sample-hold
attr title  "tx state, vector"
vector 270  wanSansMPLS.reginaLSR.ppp[1].queue  queueLength:vector  ETV
attr interpolationmode  sample-hold
attr title  "queue length, vector"
vector 271  wanSansMPLS.reginaLSR.ppp[1].ppp  txState:vector  ETV
attr interpolationmode  sample-hold
attr title  "tx state, vector"
vector 281  wanSansMPLS.reginaLSR.ppp[2].queue  queueLength:vector  ETV
attr interpolationmode  sample-hold
attr title  "queue length, vector"
vector 282  wanSansMPLS.reginaLSR.ppp[2].ppp  txState:vector  ETV
attr interpolationmode  sample-hold
attr title  "tx state, vector"
vector 297  wanSansMPLS.torontoLSR.ppp[0].queue  queueLength:vector  ETV
attr interpolationmode  sample-hold
attr title  "queue length, vector"
vector 298  wanSansMPLS.torontoLSR.ppp[0].ppp  txState:vector  ETV
attr interpolationmode  sample-hold
attr title  "tx state, vector"
vector 308  wanSansMPLS.torontoLSR.ppp[1].queue  queueLength:vector  ETV
attr interpolationmode  sample-hold
attr title  "queue length, vector"
vector 309  wanSansMPLS.torontoLSR.ppp[1].ppp  txState:vector  ETV
attr interpolationmode  sample-hold
attr title  "tx state, vector"
vector 324  wanSansMPLS.winnipegLSR.ppp[0].queue  queueLength:vector  ETV
attr interpolationmode  sample-hold
attr title  "queue length, vector"
vector 325  wanSansMPLS.winnipegLSR.ppp[0].ppp  txState:vector  ETV
attr interpolationmode  sample-hold
attr title  "tx state, vector"
vector 335  wanSansMPLS.winnipegLSR.ppp[1].queue  queueLength:vector  ETV
attr interpolationmode  sample-hold
attr title  "queue length, vector"
vector 336  wanSansMPLS.winnipegLSR.ppp[1].ppp  txState:vector  ETV
attr interpolationmode  sample-hold
attr title  "tx state, vector"
vector 351  wanSansMPLS.montrealLSR.ppp[0].queue  queueLength:vector  ETV
attr interpolationmode  sample-hold
attr title  "queue length, vector"
vector 352  wanSansMPLS.montrealLSR.ppp[0].ppp  txState:vector  ETV
attr interpolationmode  sample-hold
attr title  "tx state, vector"
vector 362  wanSansMPLS.montrealLSR.ppp[1].queue  queueLength:vector  ETV
attr interpolationmode  sample-hold
attr title  "queue length, vector"
vector 363  wanSansMPLS.montrealLSR.ppp[1].ppp  txState:vector  ETV
attr interpolationmode  sample-hold
attr title  "tx state, vector"
vector 373  wanSansMPLS.montrealLSR.ppp[2].queue  queueLength:vector  ETV
attr interpolationmode  sample-hold
attr title  "queue length, vector"
vector 374  wanSansMPLS.montrealLSR.ppp[2].ppp  txState:vector  ETV
attr interpolationmode  sample-hold
attr title  "tx state, vector"
vector 384  wanSansMPLS.montrealLSR.ppp[3].queue  queueLength:vector  ETV
attr interpolationmode  sample-hold
attr title  "queue length, vector"
vector 385  wanSansMPLS.montrealLSR.ppp[3].ppp  txState:vector  ETV
attr interpolationmode  sample-hold
attr title  "tx state, vector"
vector 294  wanSansMPLS.torontoLSR.ppp[0].queue  rcvdPk:vector(packetBytes)  ETV
attr interpolationmode  none
attr title  "received packets, vector(packetBytes)"
vector 296  wanSansMPLS.torontoLSR.ppp[0].queue  queueingTime:vector  ETV
attr interpolationmode  none
attr title  "queueing time, vector"
vector 305  wanSansMPLS.torontoLSR.ppp[1].queue  rcvdPk:vector(packetBytes)  ETV
attr interpolationmode  none
attr title  "received packets, vector(packetBytes)"
vector 307  wanSansMPLS.torontoLSR.ppp[1].queue  queueingTime:vector  ETV
attr interpolationmode  none
attr title  "queueing time, vector"
vector 303  wanSansMPLS.torontoLSR.ppp[0].ppp  rcvdPkFromHL:vector(packetBytes)  ETV
attr interpolationmode  none
attr source  packetReceivedFromUpper
attr title  "packets received from higher layer, vector(packetBytes)"
vector 299  wanSansMPLS.torontoLSR.ppp[0].ppp  txPk:vector(packetBytes)  ETV
attr interpolationmode  none
attr source  packetSentToLower
attr title  "packets transmitted, vector(packetBytes)"
vector 14  wanSansMPLS.torontoLSR.pppg$o[0].channel  throughput:vector  ETV
attr source  sumPerDuration(packetBits(messageSent))
attr unit  bps
vector 314  wanSansMPLS.torontoLSR.ppp[1].ppp  rcvdPkFromHL:vector(packetBytes)  ETV
attr interpolationmode  none
attr source  packetReceivedFromUpper
attr title  "packets received from higher layer, vector(packetBytes)"
vector 310  wanSansMPLS.torontoLSR.ppp[1].ppp  txPk:vector(packetBytes)  ETV
attr interpolationmode  none
attr source  packetSentToLower
attr title  "packets transmitted, vector(packetBytes)"
vector 17  wanSansMPLS.torontoLSR.pppg$o[1].channel  throughput:vector  ETV
attr source  sumPerDuration(packetBits(messageSent))
attr unit  bps
vector 170  wanSansMPLS.calgaryLSR.ppp[2].ppp  rxPkOk:vector(packetBytes)  ETV
attr interpolationmode  none
attr source  rxPkOk
attr title  "packets received OK, vector(packetBytes)"
vector 174  wanSansMPLS.calgaryLSR.ppp[2].ppp  passedUpPk:vector(packetBytes)  ETV
attr interpolationmode  none
attr source  packetSentToUpper
attr title  "packets passed to higher layer, vector(packetBytes)"
vector 164  wanSansMPLS.calgaryLSR.ppp[2].queue  rcvdPk:vector(packetBytes)  ETV
attr interpolationmode  none
attr title  "received packets, vector(packetBytes)"
vector 166  wanSansMPLS.calgaryLSR.ppp[2].queue  queueingTime:vector  ETV
attr interpolationmode  none
attr title  "queueing time, vector"
vector 142  wanSansMPLS.calgaryLSR.ppp[0].queue  rcvdPk:vector(packetBytes)  ETV
attr interpolationmode  none
attr title  "received packets, vector(packetBytes)"
vector 144  wanSansMPLS.calgaryLSR.ppp[0].queue  queueingTime:vector  ETV
attr interpolationmode  none
attr title  "queueing time, vector"
vector 153  wanSansMPLS.calgaryLSR.ppp[1].queue  rcvdPk:vector(packetBytes)  ETV
attr interpolationmode  none
attr title  "received packets, vector(packetBytes)"
vector 155  wanSansMPLS.calgaryLSR.ppp[1].queue  queueingTime:vector  ETV
attr interpolationmode  none
attr title  "queueing time, vector"
vector 173  wanSansMPLS.calgaryLSR.ppp[2].ppp  rcvdPkFromHL:vector(packetBytes)  ETV
attr interpolationmode  none
attr source  packetReceivedFromUpper
attr title  "packets received from higher layer, vector(packetBytes)"
vector 169  wanSansMPLS.calgaryLSR.ppp[2].ppp  txPk:vector(packetBytes)  ETV
attr interpolationmode  none
attr source  packetSentToLower
attr title  "packets transmitted, vector(packetBytes)"
vector 16  wanSansMPLS.calgaryLSR.pppg$o[2].channel  throughput:vector  ETV
attr source  sumPerDuration(packetBits(messageSent))
attr unit  bps
vector 151  wanSansMPLS.calgaryLSR.ppp[0].ppp  rcvdPkFromHL:vector(packetBytes)  ETV
attr interpolationmode  none
attr source  packetReceivedFromUpper
attr title  "packets received from higher layer, vector(packetBytes)"
vector 147  wanSansMPLS.calgaryLSR.ppp[0].ppp  txPk:vector(packetBytes)  ETV
attr interpolationmode  none
attr source  packetSentToLower
attr title  "packets transmitted, vector(packetBytes)"
vector 1  wanSansMPLS.calgaryLSR.pppg$o[0].channel  throughput:vector  ETV
attr source  sumPerDuration(packetBits(messageSent))
attr unit  bps
vector 162  wanSansMPLS.calgaryLSR.ppp[1].ppp  rcvdPkFromHL:vector(packetBytes)  ETV
attr interpolationmode  none
attr source  packetReceivedFromUpper
attr title  "packets received from higher layer, vector(packetBytes)"
vector 158  wanSansMPLS.calgaryLSR.ppp[1].ppp  txPk:vector(packetBytes)  ETV
attr interpolationmode  none
attr source  packetSentToLower
attr title  "packets transmitted, vector(packetBytes)"
vector 8  wanSansMPLS.calgaryLSR.pppg$o[1].channel  throughput:vector  ETV
attr source  sumPerDuration(packetBits(messageSent))
attr unit  bps
vector 311  wanSansMPLS.torontoLSR.ppp[1].ppp  rxPkOk:vector(packetBytes)  ETV
attr interpolationmode  none
attr source  rxPkOk
attr title  "packets received OK, vector(packetBytes)"
vector 315  wanSansMPLS.torontoLSR.ppp[1].ppp  passedUpPk:vector(packetBytes)  ETV
attr interpolationmode  none
attr source  packetSentToUpper
attr title  "packets passed to higher layer, vector(packetBytes)"
vector 321  wanSansMPLS.winnipegLSR.ppp[0].queue  rcvdPk:vector(packetBytes)  ETV
attr interpolationmode  none
attr title  "received packets, vector(packetBytes)"
vector 323  wanSansMPLS.winnipegLSR.ppp[0].queue  queueingTime:vector  ETV
attr interpolationmode  none
attr title  "queueing time, vector"
vector 332  wanSansMPLS.winnipegLSR.ppp[1].queue  rcvdPk:vector(packetBytes)  ETV
attr interpolationmode  none
attr title  "received packets, vector(packetBytes)"
vector 334  wanSansMPLS.winnipegLSR.ppp[1].queue  queueingTime:vector  ETV
attr interpolationmode  none
attr title  "queueing time, vector"
vector 330  wanSansMPLS.winnipegLSR.ppp[0].ppp  rcvdPkFromHL:vector(packetBytes)  ETV
attr interpolationmode  none
attr source  packetReceivedFromUpper
attr title  "packets received from higher layer, vector(packetBytes)"
vector 326  wanSansMPLS.winnipegLSR.ppp[0].ppp  txPk:vector(packetBytes)  ETV
attr interpolationmode  none
attr source  packetSentToLower
attr title  "packets transmitted, vector(packetBytes)"
vector 4  wanSansMPLS.winnipegLSR.pppg$o[0].channel  throughput:vector  ETV
attr source  sumPerDuration(packetBits(messageSent))
attr unit  bps
vector 341  wanSansMPLS.winnipegLSR.ppp[1].ppp  rcvdPkFromHL:vector(packetBytes)  ETV
attr interpolationmode  none
attr source  packetReceivedFromUpper
attr title  "packets received from higher layer, vector(packetBytes)"
vector 337  wanSansMPLS.winnipegLSR.ppp[1].ppp  txPk:vector(packetBytes)  ETV
attr interpolationmode  none
attr source  packetSentToLower
attr title  "packets transmitted, vector(packetBytes)"
vector 13  wanSansMPLS.winnipegLSR.pppg$o[1].channel  throughput:vector  ETV
attr source  sumPerDuration(packetBits(messageSent))
attr unit  bps
vector 256  wanSansMPLS.reginaLSR.ppp[0].queue  rcvdPk:vector(packetBytes)  ETV
attr interpolationmode  none
attr title  "received packets, vector(packetBytes)"
vector 258  wanSansMPLS.reginaLSR.ppp[0].queue  queueingTime:vector  ETV
attr interpolationmode  none
attr title  "queueing time, vector"
vector 267  wanSansMPLS.reginaLSR.ppp[1].queue  rcvdPk:vector(packetBytes)  ETV
attr interpolationmode  none
attr title  "received packets, vector(packetBytes)"
vector 269  wanSansMPLS.reginaLSR.ppp[1].queue  queueingTime:vector  ETV
attr interpolationmode  none
attr title  "queueing time, vector"
vector 278  wanSansMPLS.reginaLSR.ppp[2].queue  rcvdPk:vector(packetBytes)  ETV
attr interpolationmode  none
attr title  "received packets, vector(packetBytes)"
vector 280  wanSansMPLS.reginaLSR.ppp[2].queue  queueingTime:vector  ETV
attr interpolationmode  none
attr title  "queueing time, vector"
vector 265  wanSansMPLS.reginaLSR.ppp[0].ppp  rcvdPkFromHL:vector(packetBytes)  ETV
attr interpolationmode  none
attr source  packetReceivedFromUpper
attr title  "packets received from higher layer, vector(packetBytes)"
vector 261  wanSansMPLS.reginaLSR.ppp[0].ppp  txPk:vector(packetBytes)  ETV
attr interpolationmode  none
attr source  packetSentToLower
attr title  "packets transmitted, vector(packetBytes)"
vector 2  wanSansMPLS.reginaLSR.pppg$o[0].channel  throughput:vector  ETV
attr source  sumPerDuration(packetBits(messageSent))
attr unit  bps
vector 276  wanSansMPLS.reginaLSR.ppp[1].ppp  rcvdPkFromHL:vector(packetBytes)  ETV
attr interpolationmode  none
attr source  packetReceivedFromUpper
attr title  "packets received from higher layer, vector(packetBytes)"
vector 272  wanSansMPLS.reginaLSR.ppp[1].ppp  txPk:vector(packetBytes)  ETV
attr interpolationmode  none
attr source  packetSentToLower
attr title  "packets transmitted, vector(packetBytes)"
vector 9  wanSansMPLS.reginaLSR.pppg$o[1].channel  throughput:vector  ETV
attr source  sumPerDuration(packetBits(messageSent))
attr unit  bps
vector 287  wanSansMPLS.reginaLSR.ppp[2].ppp  rcvdPkFromHL:vector(packetBytes)  ETV
attr interpolationmode  none
attr source  packetReceivedFromUpper
attr title  "packets received from higher layer, vector(packetBytes)"
vector 283  wanSansMPLS.reginaLSR.ppp[2].ppp  txPk:vector(packetBytes)  ETV
attr interpolationmode  none
attr source  packetSentToLower
attr title  "packets transmitted, vector(packetBytes)"
vector 11  wanSansMPLS.reginaLSR.pppg$o[2].channel  throughput:vector  ETV
attr source  sumPerDuration(packetBits(messageSent))
attr unit  bps
vector 180  wanSansMPLS.vancouverLSR.ppp[0].queue  rcvdPk:vector(packetBytes)  ETV
attr interpolationmode  none
attr title  "received packets, vector(packetBytes)"
vector 182  wanSansMPLS.vancouverLSR.ppp[0].queue  queueingTime:vector  ETV
attr interpolationmode  none
attr title  "queueing time, vector"
vector 191  wanSansMPLS.vancouverLSR.ppp[1].queue  rcvdPk:vector(packetBytes)  ETV
attr interpolationmode  none
attr title  "received packets, vector(packetBytes)"
vector 193  wanSansMPLS.vancouverLSR.ppp[1].queue  queueingTime:vector  ETV
attr interpolationmode  none
attr title  "queueing time, vector"
vector 189  wanSansMPLS.vancouverLSR.ppp[0].ppp  rcvdPkFromHL:vector(packetBytes)  ETV
attr interpolationmode  none
attr source  packetReceivedFromUpper
attr title  "packets received from higher layer, vector(packetBytes)"
vector 185  wanSansMPLS.vancouverLSR.ppp[0].ppp  txPk:vector(packetBytes)  ETV
attr interpolationmode  none
attr source  packetSentToLower
attr title  "packets transmitted, vector(packetBytes)"
vector 0  wanSansMPLS.vancouverLSR.pppg$o[0].channel  throughput:vector  ETV
attr source  sumPerDuration(packetBits(messageSent))
attr unit  bps
vector 200  wanSansMPLS.vancouverLSR.ppp[1].ppp  rcvdPkFromHL:vector(packetBytes)  ETV
attr interpolationmode  none
attr source  packetReceivedFromUpper
attr title  "packets received from higher layer, vector(packetBytes)"
vector 196  wanSansMPLS.vancouverLSR.ppp[1].ppp  txPk:vector(packetBytes)  ETV
attr interpolationmode  none
attr source  packetSentToLower
attr title  "packets transmitted, vector(packetBytes)"
vector 6  wanSansMPLS.vancouverLSR.pppg$o[1].channel  throughput:vector  ETV
attr source  sumPerDuration(packetBits(messageSent))
attr unit  bps
vector 376  wanSansMPLS.montrealLSR.ppp[2].ppp  rxPkOk:vector(packetBytes)  ETV
attr interpolationmode  none
attr source  rxPkOk
attr title  "packets received OK, vector(packetBytes)"
vector 380  wanSansMPLS.montrealLSR.ppp[2].ppp  passedUpPk:vector(packetBytes)  ETV
attr interpolationmode  none
attr source  packetSentToUpper
attr title  "packets passed to higher layer, vector(packetBytes)"
vector 370  wanSansMPLS.montrealLSR.ppp[2].queue  rcvdPk:vector(packetBytes)  ETV
attr interpolationmode  none
attr title  "received packets, vector(packetBytes)"
vector 372  wanSansMPLS.montrealLSR.ppp[2].queue  queueingTime:vector  ETV
attr interpolationmode  none
attr title  "queueing time, vector"
vector 348  wanSansMPLS.montrealLSR.ppp[0].queue  rcvdPk:vector(packetBytes)  ETV
attr interpolationmode  none
attr title  "received packets, vector(packetBytes)"
vector 350  wanSansMPLS.montrealLSR.ppp[0].queue  queueingTime:vector  ETV
attr interpolationmode  none
attr title  "queueing time, vector"
vector 359  wanSansMPLS.montrealLSR.ppp[1].queue  rcvdPk:vector(packetBytes)  ETV
attr interpolationmode  none
attr title  "received packets, vector(packetBytes)"
vector 361  wanSansMPLS.montrealLSR.ppp[1].queue  queueingTime:vector  ETV
attr interpolationmode  none
attr title  "queueing time, vector"
vector 379  wanSansMPLS.montrealLSR.ppp[2].ppp  rcvdPkFromHL:vector(packetBytes)  ETV
attr interpolationmode  none
attr source  packetReceivedFromUpper
attr title  "packets received from higher layer, vector(packetBytes)"
vector 375  wanSansMPLS.montrealLSR.ppp[2].ppp  txPk:vector(packetBytes)  ETV
attr interpolationmode  none
attr source  packetSentToLower
attr title  "packets transmitted, vector(packetBytes)"
vector 15  wanSansMPLS.montrealLSR.pppg$o[2].channel  throughput:vector  ETV
attr source  sumPerDuration(packetBits(messageSent))
attr unit  bps
vector 357  wanSansMPLS.montrealLSR.ppp[0].ppp  rcvdPkFromHL:vector(packetBytes)  ETV
attr interpolationmode  none
attr source  packetReceivedFromUpper
attr title  "packets received from higher layer, vector(packetBytes)"
vector 353  wanSansMPLS.montrealLSR.ppp[0].ppp  txPk:vector(packetBytes)  ETV
attr interpolationmode  none
attr source  packetSentToLower
attr title  "packets transmitted, vector(packetBytes)"
vector 3  wanSansMPLS.montrealLSR.pppg$o[0].channel  throughput:vector  ETV
attr source  sumPerDuration(packetBits(messageSent))
attr unit  bps
vector 368  wanSansMPLS.montrealLSR.ppp[1].ppp  rcvdPkFromHL:vector(packetBytes)  ETV
attr interpolationmode  none
attr source  packetReceivedFromUpper
attr title  "packets received from higher layer, vector(packetBytes)"
vector 364  wanSansMPLS.montrealLSR.ppp[1].ppp  txPk:vector(packetBytes)  ETV
attr interpolationmode  none
attr source  packetSentToLower
attr title  "packets transmitted, vector(packetBytes)"
vector 5  wanSansMPLS.montrealLSR.pppg$o[1].channel  throughput:vector  ETV
attr source  sumPerDuration(packetBits(messageSent))
attr unit  bps
vector 273  wanSansMPLS.reginaLSR.ppp[1].ppp  rxPkOk:vector(packetBytes)  ETV
attr interpolationmode  none
attr source  rxPkOk
attr title  "packets received OK, vector(packetBytes)"
vector 277  wanSansMPLS.reginaLSR.ppp[1].ppp  passedUpPk:vector(packetBytes)  ETV
attr interpolationmode  none
attr source  packetSentToUpper
attr title  "packets passed to higher layer, vector(packetBytes)"
vector 246  wanSansMPLS.edmontonLSR.ppp[2].ppp  rxPkOk:vector(packetBytes)  ETV
attr interpolationmode  none
attr source  rxPkOk
attr title  "packets received OK, vector(packetBytes)"
vector 250  wanSansMPLS.edmontonLSR.ppp[2].ppp  passedUpPk:vector(packetBytes)  ETV
attr interpolationmode  none
attr source  packetSentToUpper
attr title  "packets passed to higher layer, vector(packetBytes)"
vector 240  wanSansMPLS.edmontonLSR.ppp[2].queue  rcvdPk:vector(packetBytes)  ETV
attr interpolationmode  none
attr title  "received packets, vector(packetBytes)"
vector 242  wanSansMPLS.edmontonLSR.ppp[2].queue  queueingTime:vector  ETV
attr interpolationmode  none
attr title  "queueing time, vector"
vector 218  wanSansMPLS.edmontonLSR.ppp[0].queue  rcvdPk:vector(packetBytes)  ETV
attr interpolationmode  none
attr title  "received packets, vector(packetBytes)"
vector 220  wanSansMPLS.edmontonLSR.ppp[0].queue  queueingTime:vector  ETV
attr interpolationmode  none
attr title  "queueing time, vector"
vector 229  wanSansMPLS.edmontonLSR.ppp[1].queue  rcvdPk:vector(packetBytes)  ETV
attr interpolationmode  none
attr title  "received packets, vector(packetBytes)"
vector 231  wanSansMPLS.edmontonLSR.ppp[1].queue  queueingTime:vector  ETV
attr interpolationmode  none
attr title  "queueing time, vector"
vector 249  wanSansMPLS.edmontonLSR.ppp[2].ppp  rcvdPkFromHL:vector(packetBytes)  ETV
attr interpolationmode  none
attr source  packetReceivedFromUpper
attr title  "packets received from higher layer, vector(packetBytes)"
vector 245  wanSansMPLS.edmontonLSR.ppp[2].ppp  txPk:vector(packetBytes)  ETV
attr interpolationmode  none
attr source  packetSentToLower
attr title  "packets transmitted, vector(packetBytes)"
vector 12  wanSansMPLS.edmontonLSR.pppg$o[2].channel  throughput:vector  ETV
attr source  sumPerDuration(packetBits(messageSent))
attr unit  bps
vector 227  wanSansMPLS.edmontonLSR.ppp[0].ppp  rcvdPkFromHL:vector(packetBytes)  ETV
attr interpolationmode  none
attr source  packetReceivedFromUpper
attr title  "packets received from higher layer, vector(packetBytes)"
vector 223  wanSansMPLS.edmontonLSR.ppp[0].ppp  txPk:vector(packetBytes)  ETV
attr interpolationmode  none
attr source  packetSentToLower
attr title  "packets transmitted, vector(packetBytes)"
vector 7  wanSansMPLS.edmontonLSR.pppg$o[0].channel  throughput:vector  ETV
attr source  sumPerDuration(packetBits(messageSent))
attr unit  bps
vector 238  wanSansMPLS.edmontonLSR.ppp[1].ppp  rcvdPkFromHL:vector(packetBytes)  ETV
attr interpolationmode  none
attr source  packetReceivedFromUpper
attr title  "packets received from higher layer, vector(packetBytes)"
vector 234  wanSansMPLS.edmontonLSR.ppp[1].ppp  txPk:vector(packetBytes)  ETV
attr interpolationmode  none
attr source  packetSentToLower
attr title  "packets transmitted, vector(packetBytes)"
vector 10  wanSansMPLS.edmontonLSR.pppg$o[1].channel  throughput:vector  ETV
attr source  sumPerDuration(packetBits(messageSent))
attr unit  bps
vector 159  wanSansMPLS.calgaryLSR.ppp[1].ppp  rxPkOk:vector(packetBytes)  ETV
attr interpolationmode  none
attr source  rxPkOk
attr title  "packets received OK, vector(packetBytes)"
vector 163  wanSansMPLS.calgaryLSR.ppp[1].ppp  passedUpPk:vector(packetBytes)  ETV
attr interpolationmode  none
attr source  packetSentToUpper
attr title  "packets passed to higher layer, vector(packetBytes)"
vector 235  wanSansMPLS.edmontonLSR.ppp[1].ppp  rxPkOk:vector(packetBytes)  ETV
attr interpolationmode  none
attr source  rxPkOk
attr title  "packets received OK, vector(packetBytes)"
vector 239  wanSansMPLS.edmontonLSR.ppp[1].ppp  passedUpPk:vector(packetBytes)  ETV
attr interpolationmode  none
attr source  packetSentToUpper
attr title  "packets passed to higher layer, vector(packetBytes)"
vector 90  wanSansMPLS.vancouverLAN.staSwitch[0].udpApp[0]  sentPk:vector(packetBytes)  ETV
attr interpolationmode  none
attr source  sentPk
attr title  "packets sent, vector(packetBytes)"
vector 97  wanSansMPLS.vancouverLAN.staSwitch[0].udpApp[0].udpOut.channel  throughput:vector  ETV
attr source  sumPerDuration(packetBits(messageSent))
attr unit  bps
vector 92  wanSansMPLS.vancouverLAN.staSwitch[0].udp  sentPk:vector(packetBytes)  ETV
attr interpolationmode  none
attr source  sentPk
attr title  "packets sent, vector(packetBytes)"
vector 99  wanSansMPLS.vancouverLAN.staSwitch[0].udp.ipOut.channel  throughput:vector  ETV
attr source  sumPerDuration(packetBits(messageSent))
attr unit  bps
vector 101  wanSansMPLS.vancouverLAN.staSwitch[0].networkLayer.arp  sentReq:vector  ETV
attr title  "ARP request sent, vector"
vector 88  wanSansMPLS.vancouverLAN.staSwitch[0].networkLayer.ifOut[1].channel  throughput:vector  ETV
attr source  sumPerDuration(packetBits(messageSent))
attr unit  bps
vector 115  wanSansMPLS.vancouverLAN.staSwitch[0].eth[0].encap  encapPk:vector(packetBytes)  ETV
attr interpolationmode  none
attr source  encapPk
attr title  "packets encapsulated, vector(packetBytes)"
vector 111  wanSansMPLS.vancouverLAN.staSwitch[0].eth[0].mac  rxPkFromHL:vector(packetBytes)  ETV
attr interpolationmode  none
attr source  rxPkFromHL
attr title  "packet bytes from higher layer, vector(packetBytes)"
vector 84  wanSansMPLS.vancouverLAN.staSwitch[0].ethg$o[0].channel  throughput:vector  ETV
attr source  sumPerDuration(packetBits(messageSent))
attr unit  bps
vector 106  wanSansMPLS.vancouverLAN.staSwitch[0].eth[0].mac  txPk:vector(packetBytes)  ETV
attr interpolationmode  none
attr source  txPk
attr title  "packets transmitted, vector(packetBytes)"
vector 130  wanSansMPLS.vancouverLAN.switchInLan.eth[1].mac  rxPkOk:vector(packetBytes)  ETV
attr interpolationmode  none
attr source  rxPkOk
attr title  "packets received OK, vector(packetBytes)"
vector 131  wanSansMPLS.vancouverLAN.switchInLan.eth[1].mac  passedUpPk:vector(packetBytes)  ETV
attr interpolationmode  none
attr source  packetSentToUpper
attr title  "packets passed to higher layer, vector(packetBytes)"
vector 123  wanSansMPLS.vancouverLAN.switchInLan.eth[0].mac  rxPkFromHL:vector(packetBytes)  ETV
attr interpolationmode  none
attr source  rxPkFromHL
attr title  "packet bytes from higher layer, vector(packetBytes)"
vector 22  wanSansMPLS.vancouverLAN.switchInOut$o.channel  throughput:vector  ETV
attr source  sumPerDuration(packetBits(messageSent))
attr unit  bps
vector 118  wanSansMPLS.vancouverLAN.switchInLan.eth[0].mac  txPk:vector(packetBytes)  ETV
attr interpolationmode  none
attr source  txPk
attr title  "packets transmitted, vector(packetBytes)"
vector 61  wanSansMPLS.vancouverRouter.eth[0].mac  rxPkOk:vector(packetBytes)  ETV
attr interpolationmode  none
attr source  rxPkOk
attr title  "packets received OK, vector(packetBytes)"
vector 62  wanSansMPLS.vancouverRouter.eth[0].mac  passedUpPk:vector(packetBytes)  ETV
attr interpolationmode  none
attr source  packetSentToUpper
attr title  "packets passed to higher layer, vector(packetBytes)"
vector 70  wanSansMPLS.vancouverRouter.eth[0].encap  decapPk:vector(packetBytes)  ETV
attr interpolationmode  none
attr source  decapPk
attr title  "packets decapsulated, vector(packetBytes)"
vector 56  wanSansMPLS.vancouverRouter.networkLayer.arp  sentReply:vector  ETV
attr title  "ARP replies sent, vector"
vector 69  wanSansMPLS.vancouverRouter.eth[0].encap  encapPk:vector(packetBytes)  ETV
attr interpolationmode  none
attr source  encapPk
attr title  "packets encapsulated, vector(packetBytes)"
vector 65  wanSansMPLS.vancouverRouter.eth[0].mac  rxPkFromHL:vector(packetBytes)  ETV
attr interpolationmode  none
attr source  rxPkFromHL
attr title  "packet bytes from higher layer, vector(packetBytes)"
vector 23  wanSansMPLS.vancouverRouter.ethg$o[0].channel  throughput:vector  ETV
attr source  sumPerDuration(packetBits(messageSent))
attr unit  bps
vector 60  wanSansMPLS.vancouverRouter.eth[0].mac  txPk:vector(packetBytes)  ETV
attr interpolationmode  none
attr source  txPk
attr title  "packets transmitted, vector(packetBytes)"
vector 119  wanSansMPLS.vancouverLAN.switchInLan.eth[0].mac  rxPkOk:vector(packetBytes)  ETV
attr interpolationmode  none
attr source  rxPkOk
attr title  "packets received OK, vector(packetBytes)"
vector 120  wanSansMPLS.vancouverLAN.switchInLan.eth[0].mac  passedUpPk:vector(packetBytes)  ETV
attr interpolationmode  none
attr source  packetSentToUpper
attr title  "packets passed to higher layer, vector(packetBytes)"
vector 134  wanSansMPLS.vancouverLAN.switchInLan.eth[1].mac  rxPkFromHL:vector(packetBytes)  ETV
attr interpolationmode  none
attr source  rxPkFromHL
attr title  "packet bytes from higher layer, vector(packetBytes)"
vector 83  wanSansMPLS.vancouverLAN.switchInLan.ethg$o[1].channel  throughput:vector  ETV
attr source  sumPerDuration(packetBits(messageSent))
attr unit  bps
vector 129  wanSansMPLS.vancouverLAN.switchInLan.eth[1].mac  txPk:vector(packetBytes)  ETV
attr interpolationmode  none
attr source  txPk